LAMMPS data file Created by LigParGen - (Written by Leela S. Dodda)

      10 atoms
      10 bonds
      17 angles
      19 dihedrals
       5 impropers
 
      10 atom types
      10 bond types

# EC_C2_H1
# EC_H3_C2
# EC_O4_C2
# EC_C5_C2
# EC_C6_O4
# EC_H7_C5
# EC_H8_C5
# EC_O9_C5
# EC_O10_C6
# EC_O9_C6

      17 angle types

# EC_H1_C2_H3
# EC_H1_C2_O4
# EC_H1_C2_C5
# EC_C2_O4_C6
# EC_C2_C5_H7
# EC_C2_C5_H8
# EC_C2_C5_O9
# EC_O4_C6_O10
# EC_O4_C2_C5
# EC_H3_C2_O4
# EC_O9_C6_O10
# EC_H7_C5_O9
# EC_H3_C2_C5
# EC_H8_C5_O9
# EC_C5_O9_C6
# EC_O4_C6_O9
# EC_H7_C5_H8

      19 dihedral types

# EC_C6_O4_C2_H1
# EC_H7_C5_C2_H1
# EC_O9_C5_C2_H3
# EC_C5_O9_C6_O4
# EC_O10_C6_O4_C2
# EC_H7_C5_O9_C6
# EC_O10_C6_O9_C5
# EC_C6_O4_C2_C5
# EC_O9_C6_O4_C2
# EC_H7_C5_C2_O4
# EC_H8_C5_O9_C6
# EC_O9_C5_C2_O4
# EC_H8_C5_C2_O4
# EC_H8_C5_C2_H1
# EC_H8_C5_C2_H3
# EC_H7_C5_C2_H3
# EC_C6_O9_C5_C2
# EC_O9_C5_C2_H1
# EC_C6_O4_C2_H3

       5 improper types

# EC_C2_H1_H3_O4
# EC_C2_H1_H3_C5
# EC_C5_C2_H7_H8
# EC_C5_O9_C2_H7
# EC_C6_O9_O10_O4

 
   -2.232630    47.767370 xlo xhi
   -0.717430    49.282570 ylo yhi
   -2.058980    47.941020 zlo zhi

Masses

       1      1.008  # H1
       2     12.011  # C2
       3      1.008  # H3
       4     15.999  # O4
       5     12.011  # C5
       6     12.011  # C6
       7      1.008  # H7
       8      1.008  # H8
       9     15.999  # O9
      10     15.999  # O10

Pair Coeffs 

       1      0.030  2.5000000 
       2      0.066  3.5000000 
       3      0.030  2.5000000 
       4      0.140  2.9000000 
       5      0.066  3.5000000 
       6      0.070  3.5500000 
       7      0.030  2.5000000 
       8      0.030  2.5000000 
       9      0.140  2.9000000 
      10      0.210  2.9600000 

Bond Coeffs 

       1   340.0000     1.0900 
       2   340.0000     1.0900 
       3   320.0000     1.4100 
       4   268.0000     1.5290 
       5   214.0000     1.3270 
       6   340.0000     1.0900 
       7   340.0000     1.0900 
       8   320.0000     1.4100 
       9   570.0000     1.2290 
      10   214.0000     1.3270 

Angle Coeffs 

       1     33.000    107.800
       2     35.000    109.500
       3     37.500    110.700
       4     83.000    116.900
       5     37.500    110.700
       6     37.500    110.700
       7     50.000    109.500
       8     83.000    123.400
       9     50.000    109.500
      10     35.000    109.500
      11     83.000    123.400
      12     35.000    109.500
      13     37.500    110.700
      14     35.000    109.500
      15     83.000    116.900
      16     69.900    118.180
      17     33.000    107.800

Dihedral Coeffs  

       1      0.000      0.000      0.198      0.000 
       2      0.000      0.000      0.300      0.000 
       3      0.000      0.000      0.468      0.000 
       4      4.669      5.124      0.000      0.000 
       5      0.000      5.124      0.000      0.000 
       6      0.000      0.000      0.198      0.000 
       7      0.000      5.124      0.000      0.000 
       8     -1.220     -0.126      0.422      0.000 
       9      4.669      5.124      0.000      0.000 
      10      0.000      0.000      0.468      0.000 
      11      0.000      0.000      0.198      0.000 
      12     -0.550      0.000      0.000      0.000 
      13      0.000      0.000      0.468      0.000 
      14      0.000      0.000      0.300      0.000 
      15      0.000      0.000      0.300      0.000 
      16      0.000      0.000      0.300      0.000 
      17     -1.220     -0.126      0.422      0.000 
      18      0.000      0.000      0.468      0.000 
      19      0.000      0.000      0.198      0.000 

Improper Coeffs 

       1      0.000      -1       2 
       2      0.000      -1       2 
       3      0.000      -1       2 
       4      0.000      -1       2 
       5     10.500      -1       2 

Atoms 

     1      1      1 0.13350000    1.000  1.00000  0.00000
     2      1      2 -0.02830000   -0.086  1.00000  0.00000
     3      1      3 0.13350000   -0.455  1.00000  1.02546
     4      1      4 -0.34980000   -0.540 -0.20047 -0.64847
     5      1      5 -0.02750000   -0.702  2.11277 -0.85059
     6      1      6 0.57850000   -1.581  0.08902 -1.47851
     7      1      7 0.13370000   -1.128  2.92385 -0.26699
     8      1      8 0.13370000   -0.004  2.51348 -1.58691
     9      1      9 -0.35130000   -1.768  1.44102 -1.54355
    10      1     10 -0.35600000   -2.233 -0.71743 -2.05898

Bonds 

     1      1      2      1
     2      2      3      2
     3      3      4      2
     4      4      5      2
     5      5      6      4
     6      6      7      5
     7      7      8      5
     8      8      9      5
     9      9     10      6
    10     10      9      6

Angles 

     1      1      1      2      3
     2      2      1      2      4
     3      3      1      2      5
     4      4      2      4      6
     5      5      2      5      7
     6      6      2      5      8
     7      7      2      5      9
     8      8      4      6     10
     9      9      4      2      5
    10     10      3      2      4
    11     11      9      6     10
    12     12      7      5      9
    13     13      3      2      5
    14     14      8      5      9
    15     15      5      9      6
    16     16      4      6      9
    17     17      7      5      8

Dihedrals

     1      1      6      4      2      1 
     2      2      7      5      2      1 
     3      3      9      5      2      3 
     4      4      5      9      6      4 
     5      5     10      6      4      2 
     6      6      7      5      9      6 
     7      7     10      6      9      5 
     8      8      6      4      2      5 
     9      9      9      6      4      2 
    10     10      7      5      2      4 
    11     11      8      5      9      6 
    12     12      9      5      2      4 
    13     13      8      5      2      4 
    14     14      8      5      2      1 
    15     15      8      5      2      3 
    16     16      7      5      2      3 
    17     17      6      9      5      2 
    18     18      9      5      2      1 
    19     19      6      4      2      3 

Impropers

     1      1      2      1      3      4 
     2      2      2      1      3      5 
     3      3      5      2      7      8 
     4      4      5      9      2      7 
     5      5      6      9     10      4 

