LAMMPS data file Created by LigParGen - (Written by Leela S. Dodda)

      15 atoms
      14 bonds
      23 angles
      19 dihedrals
       7 impropers
 
      15 atom types
      14 bond types

# EMC_C2_O1
# EMC_O3_C2
# EMC_O4_C2
# EMC_C5_O3
# EMC_C6_O4
# EMC_C7_C5
# EMC_H8_C5
# EMC_H9_C5
# EMC_H10_C7
# EMC_H11_C7
# EMC_H12_C7
# EMC_H13_C6
# EMC_H14_C6
# EMC_H15_C6

      23 angle types

# EMC_O1_C2_O3
# EMC_O1_C2_O4
# EMC_C2_O3_C5
# EMC_C2_O4_C6
# EMC_O3_C5_C7
# EMC_O3_C5_H8
# EMC_O3_C5_H9
# EMC_C5_C7_H10
# EMC_C5_C7_H11
# EMC_C5_C7_H12
# EMC_O4_C6_H13
# EMC_O4_C6_H14
# EMC_O4_C6_H15
# EMC_H11_C7_H12
# EMC_H13_C6_H15
# EMC_C7_C5_H9
# EMC_H10_C7_H12
# EMC_O3_C2_O4
# EMC_H13_C6_H14
# EMC_H14_C6_H15
# EMC_H10_C7_H11
# EMC_C7_C5_H8
# EMC_H8_C5_H9

      19 dihedral types

# EMC_C5_O3_C2_O1
# EMC_C6_O4_C2_O1
# EMC_C7_C5_O3_C2
# EMC_H10_C7_C5_O3
# EMC_H13_C6_O4_C2
# EMC_H14_C6_O4_C2
# EMC_H12_C7_C5_H8
# EMC_C5_O3_C2_O4
# EMC_H11_C7_C5_H9
# EMC_H9_C5_O3_C2
# EMC_H15_C6_O4_C2
# EMC_H8_C5_O3_C2
# EMC_H11_C7_C5_O3
# EMC_H12_C7_C5_H9
# EMC_H10_C7_C5_H8
# EMC_H10_C7_C5_H9
# EMC_H11_C7_C5_H8
# EMC_H12_C7_C5_O3
# EMC_C6_O4_C2_O3

       7 improper types

# EMC_C2_O1_O3_O4
# EMC_C5_O3_C7_H8
# EMC_C5_H9_O3_C7
# EMC_C7_H10_H11_C5
# EMC_C7_H10_H12_C5
# EMC_C6_O4_H13_H14
# EMC_C6_O4_H13_H15

 
   -1.981000    48.019000 xlo xhi
    0.112700    50.112700 ylo yhi
   -3.101160    46.898840 zlo zhi

Masses

       1     15.999  # O1
       2     12.011  # C2
       3     15.999  # O3
       4     15.999  # O4
       5     12.011  # C5
       6     12.011  # C6
       7     12.011  # C7
       8      1.008  # H8
       9      1.008  # H9
      10      1.008  # H10
      11      1.008  # H11
      12      1.008  # H12
      13      1.008  # H13
      14      1.008  # H14
      15      1.008  # H15

Pair Coeffs 

       1      0.210  2.9600000 
       2      0.070  3.5500000 
       3      0.140  2.9000000 
       4      0.140  2.9000000 
       5      0.066  3.5000000 
       6      0.066  3.5000000 
       7      0.066  3.5000000 
       8      0.030  2.5000000 
       9      0.030  2.5000000 
      10      0.030  2.5000000 
      11      0.030  2.5000000 
      12      0.030  2.5000000 
      13      0.030  2.5000000 
      14      0.030  2.5000000 
      15      0.030  2.5000000 

Bond Coeffs 

       1   570.0000     1.2290 
       2   214.0000     1.3270 
       3   214.0000     1.3270 
       4   320.0000     1.4100 
       5   320.0000     1.4100 
       6   268.0000     1.5290 
       7   340.0000     1.0900 
       8   340.0000     1.0900 
       9   340.0000     1.0900 
      10   340.0000     1.0900 
      11   340.0000     1.0900 
      12   340.0000     1.0900 
      13   340.0000     1.0900 
      14   340.0000     1.0900 

Angle Coeffs 

       1     83.000    123.400
       2     83.000    123.400
       3     83.000    116.900
       4     83.000    116.900
       5     50.000    109.500
       6     35.000    109.500
       7     35.000    109.500
       8     37.500    110.700
       9     37.500    110.700
      10     37.500    110.700
      11     35.000    109.500
      12     35.000    109.500
      13     35.000    109.500
      14     33.000    107.800
      15     33.000    107.800
      16     37.500    110.700
      17     33.000    107.800
      18     69.900    118.180
      19     33.000    107.800
      20     33.000    107.800
      21     33.000    107.800
      22     37.500    110.700
      23     33.000    107.800

Dihedral Coeffs  

       1      0.000      5.124      0.000      0.000 
       2      0.000      5.124      0.000      0.000 
       3     -1.220     -0.126      0.422      0.000 
       4      0.000      0.000      0.468      0.000 
       5      0.000      0.000      0.198      0.000 
       6      0.000      0.000      0.198      0.000 
       7      0.000      0.000      0.300      0.000 
       8      4.669      5.124      0.000      0.000 
       9      0.000      0.000      0.300      0.000 
      10      0.000      0.000      0.198      0.000 
      11      0.000      0.000      0.198      0.000 
      12      0.000      0.000      0.198      0.000 
      13      0.000      0.000      0.468      0.000 
      14      0.000      0.000      0.300      0.000 
      15      0.000      0.000      0.300      0.000 
      16      0.000      0.000      0.300      0.000 
      17      0.000      0.000      0.300      0.000 
      18      0.000      0.000      0.468      0.000 
      19      4.669      5.124      0.000      0.000 

Improper Coeffs 

       1     10.500      -1       2 
       2      0.000      -1       2 
       3      0.000      -1       2 
       4      0.000      -1       2 
       5      0.000      -1       2 
       6      0.000      -1       2 
       7      0.000      -1       2 

Atoms 

     1      1      1 -0.50430000    1.000  1.00000  0.00000
     2      1      2 0.57770000   -0.207  1.00000  0.00000
     3      1      3 -0.33870000   -0.997  1.00000  1.08233
     4      1      4 -0.33120000   -0.997  1.00137 -1.08531
     5      1      5 0.02940000   -0.302  1.00000  2.35735
     6      1      6 -0.03150000   -0.304  1.00297 -2.34832
     7      1      7 -0.24720000   -1.349  0.99818  3.44739
     8      1      8 0.10620000    0.336  0.11805  2.40454
     9      1      9 0.10620000    0.335  1.88234  2.40616
    10      1     10 0.10340000   -0.862  0.99683  4.42374
    11      1     11 0.10340000   -1.981  1.88427  3.38218
    12      1     12 0.10340000   -1.981  0.11270  3.37886
    13      1     13 0.10770000    0.319  1.89062 -2.43760
    14      1     14 0.10770000   -1.084  1.00404 -3.10116
    15      1     15 0.10770000    0.321  0.11667 -2.43890

Bonds 

     1      1      2      1
     2      2      3      2
     3      3      4      2
     4      4      5      3
     5      5      6      4
     6      6      7      5
     7      7      8      5
     8      8      9      5
     9      9     10      7
    10     10     11      7
    11     11     12      7
    12     12     13      6
    13     13     14      6
    14     14     15      6

Angles 

     1      1      1      2      3
     2      2      1      2      4
     3      3      2      3      5
     4      4      2      4      6
     5      5      3      5      7
     6      6      3      5      8
     7      7      3      5      9
     8      8      5      7     10
     9      9      5      7     11
    10     10      5      7     12
    11     11      4      6     13
    12     12      4      6     14
    13     13      4      6     15
    14     14     11      7     12
    15     15     13      6     15
    16     16      7      5      9
    17     17     10      7     12
    18     18      3      2      4
    19     19     13      6     14
    20     20     14      6     15
    21     21     10      7     11
    22     22      7      5      8
    23     23      8      5      9

Dihedrals

     1      1      5      3      2      1 
     2      2      6      4      2      1 
     3      3      7      5      3      2 
     4      4     10      7      5      3 
     5      5     13      6      4      2 
     6      6     14      6      4      2 
     7      7     12      7      5      8 
     8      8      5      3      2      4 
     9      9     11      7      5      9 
    10     10      9      5      3      2 
    11     11     15      6      4      2 
    12     12      8      5      3      2 
    13     13     11      7      5      3 
    14     14     12      7      5      9 
    15     15     10      7      5      8 
    16     16     10      7      5      9 
    17     17     11      7      5      8 
    18     18     12      7      5      3 
    19     19      6      4      2      3 

Impropers

     1      1      2      1      3      4 
     2      2      5      3      7      8 
     3      3      5      9      3      7 
     4      4      7     10     11      5 
     5      5      7     10     12      5 
     6      6      6      4     13     14 
     7      7      6      4     13     15 

